 Entering Gaussian System
 *********************************************
 Gaussian 98:
 frequency output generated by the xtb code
 *********************************************
                         Standard orientation:
 --------------------------------------------------------------------
  Center     Atomic     Atomic              Coordinates (Angstroms)
  Number     Number      Type              X           Y           Z
 --------------------------------------------------------------------
    1          6             0       -0.888310    0.167008   -0.027313
    2          6             0        0.465750   -0.511562   -0.036796
    3          8             0        1.431079    0.322910    0.586664
    4          1             0       -0.848737    1.117484   -0.569523
    5          1             0       -1.647125   -0.470435   -0.489630
    6          1             0       -1.196392    0.397853    0.997727
    7          1             0        0.791990   -0.722434   -1.059728
    8          1             0        0.424598   -1.455863    0.513792
    9          1             0        1.467148    1.155041    0.084807
 --------------------------------------------------------------------
     1 basis functions        1 primitive gaussians
     1 alpha electrons        1 beta electrons

 Harmonic frequencies (cm**-1), IR intensities (km*mol⁻¹),
 Raman scattering activities (A**4/amu), Raman depolarization ratios,
 reduced masses (AMU), force constants (mDyne/A) and normal coordinates:
                      1                      2                      3
                        a                      a                      a 
 Frequencies --   290.3060               426.8318               478.8164
 Red. masses --     2.2892                 7.7477                 4.5522
 Frc consts  --     0.0000                 0.0000                 0.0000
 IR Inten    --     0.8482                14.1995               155.8983
 Raman Activ --     0.0000                 0.0000                 0.0000
 Depolar     --     0.0000                 0.0000                 0.0000
 Atom AN      X      Y      Z        X      Y      Z        X      Y      Z
   1   6    -0.02  -0.01  -0.01    -0.40  -0.13  -0.10     0.13  -0.01   0.10
   2   6    -0.05  -0.07   0.21    -0.07   0.37   0.09     0.06  -0.09  -0.17
   3   8     0.07   0.09  -0.18     0.42  -0.13   0.09    -0.37   0.16   0.16
   4   1     0.18   0.23   0.42    -0.26  -0.07  -0.08     0.06   0.04   0.10
   5   1     0.12   0.21  -0.50     0.05  -0.22  -0.05    -0.05   0.08   0.05
   6   1    -0.31  -0.43   0.00    -0.23  -0.05  -0.06     0.15  -0.05   0.07
   7   1    -0.03  -0.12   0.08    -0.05   0.12   0.01     0.07   0.01  -0.03
   8   1    -0.02   0.03   0.14    -0.03   0.08  -0.01     0.02  -0.04  -0.06
   9   1     0.02  -0.02  -0.11     0.45  -0.14  -0.13     0.57  -0.32  -0.50
                      4                      5                      6
                        a                      a                      a 
 Frequencies --   844.1318               942.8647              1051.6381
 Red. masses --     1.9171                 9.0649                 4.0807
 Frc consts  --     0.0000                 0.0000                 0.0000
 IR Inten    --     8.4413                17.6930                76.1480
 Raman Activ --     0.0000                 0.0000                 0.0000
 Depolar     --     0.0000                 0.0000                 0.0000
 Atom AN      X      Y      Z        X      Y      Z        X      Y      Z
   1   6     0.01   0.04  -0.13     0.41   0.05   0.13    -0.11  -0.23   0.04
   2   6     0.04   0.12  -0.21     0.05   0.37   0.13     0.12   0.29  -0.08
   3   8    -0.00  -0.05   0.04    -0.40  -0.29  -0.20    -0.19  -0.18  -0.10
   4   1    -0.37   0.14   0.17    -0.11  -0.04  -0.07     0.35  -0.08  -0.01
   5   1    -0.05  -0.07   0.15     0.44  -0.31  -0.05    -0.23   0.23  -0.04
   6   1     0.32  -0.28   0.13    -0.14  -0.04  -0.03     0.03   0.14  -0.02
   7   1     0.23  -0.43   0.11    -0.14   0.02  -0.01    -0.09  -0.17  -0.01
   8   1    -0.30   0.25   0.31    -0.04   0.11   0.05     0.36   0.24   0.29
   9   1     0.02   0.05   0.11    -0.02  -0.06  -0.02     0.28   0.13   0.29
                      7                      8                      9
                        a                      a                      a 
 Frequencies --  1085.2120              1128.3810              1237.1553
 Red. masses --     9.5984                 6.5599                 3.4186
 Frc consts  --     0.0000                 0.0000                 0.0000
 IR Inten    --    16.9156                14.6646                 4.2324
 Raman Activ --     0.0000                 0.0000                 0.0000
 Depolar     --     0.0000                 0.0000                 0.0000
 Atom AN      X      Y      Z        X      Y      Z        X      Y      Z
   1   6     0.38  -0.33  -0.05     0.01  -0.17  -0.28    -0.08  -0.21   0.28
   2   6    -0.64   0.12  -0.07     0.05   0.31   0.45     0.14   0.22  -0.16
   3   8     0.18   0.18   0.08    -0.08  -0.19  -0.16     0.02  -0.03  -0.01
   4   1     0.23  -0.08   0.00     0.04   0.07   0.13     0.29  -0.13  -0.07
   5   1     0.04  -0.01  -0.00    -0.26   0.16   0.11    -0.04   0.11  -0.11
   6   1     0.21  -0.07   0.01     0.37  -0.12   0.06    -0.20   0.22  -0.05
   7   1    -0.20   0.05  -0.02     0.17   0.32   0.10     0.40  -0.08   0.10
   8   1    -0.23   0.03  -0.03    -0.01  -0.08  -0.16    -0.57   0.05  -0.08
   9   1     0.13   0.09   0.11    -0.17  -0.11  -0.16    -0.17  -0.08  -0.14
                     10                     11                     12
                        a                      a                      a 
 Frequencies --  1315.1560              1343.4990              1426.4162
 Red. masses --     3.1720                 3.8455                 3.2857
 Frc consts  --     0.0000                 0.0000                 0.0000
 IR Inten    --     7.1819                92.5116                 4.6613
 Raman Activ --     0.0000                 0.0000                 0.0000
 Depolar     --     0.0000                 0.0000                 0.0000
 Atom AN      X      Y      Z        X      Y      Z        X      Y      Z
   1   6     0.00   0.11   0.08    -0.02  -0.01  -0.04     0.42  -0.15  -0.00
   2   6    -0.32  -0.12   0.04     0.28  -0.15   0.23    -0.07  -0.01  -0.02
   3   8    -0.06  -0.02  -0.20    -0.14   0.09  -0.21    -0.00  -0.01  -0.01
   4   1     0.01  -0.02  -0.05    -0.07   0.02   0.03    -0.46   0.04   0.05
   5   1     0.13  -0.10  -0.01    -0.06   0.03   0.04    -0.36   0.35   0.16
   6   1    -0.04  -0.03   0.02    -0.02   0.01  -0.01    -0.48   0.10  -0.18
   7   1     0.72   0.16   0.23    -0.17   0.03  -0.04     0.07   0.09   0.01
   8   1     0.23  -0.07  -0.03    -0.47  -0.19  -0.23     0.04   0.05   0.08
   9   1     0.27   0.14   0.22     0.44   0.26   0.39     0.01  -0.01  -0.01
                     13                     14                     15
                        a                      a                      a 
 Frequencies --  1483.3182              1492.0955              1513.8992
 Red. masses --     1.9045                 1.5180                 1.5900
 Frc consts  --     0.0000                 0.0000                 0.0000
 IR Inten    --     0.7914                 2.7127                 2.3748
 Raman Activ --     0.0000                 0.0000                 0.0000
 Depolar     --     0.0000                 0.0000                 0.0000
 Atom AN      X      Y      Z        X      Y      Z        X      Y      Z
   1   6    -0.05   0.01   0.00    -0.00   0.07  -0.20     0.04   0.20   0.08
   2   6     0.09  -0.25  -0.07     0.01   0.01  -0.05     0.03   0.04   0.02
   3   8    -0.01  -0.02  -0.03     0.00  -0.00   0.01    -0.00  -0.00   0.00
   4   1     0.04  -0.02  -0.03     0.43   0.16   0.29     0.12  -0.31  -0.54
   5   1     0.03  -0.02  -0.04    -0.09  -0.35   0.61    -0.19   0.16   0.12
   6   1     0.07  -0.04   0.03    -0.36  -0.12  -0.09    -0.13  -0.67   0.11
   7   1    -0.01   0.67  -0.14     0.02   0.01  -0.01    -0.03  -0.03   0.00
   8   1    -0.23   0.31   0.53    -0.03   0.03   0.02    -0.02  -0.00  -0.02
   9   1     0.01   0.00   0.01    -0.01  -0.01  -0.01    -0.00  -0.01  -0.01
                     16                     17                     18
                        a                      a                      a 
 Frequencies --  2925.5261              2956.0272              2968.3831
 Red. masses --     1.8115                 1.7540                 1.8201
 Frc consts  --     0.0000                 0.0000                 0.0000
 IR Inten    --    53.6583                23.3244                43.0064
 Raman Activ --     0.0000                 0.0000                 0.0000
 Depolar     --     0.0000                 0.0000                 0.0000
 Atom AN      X      Y      Z        X      Y      Z        X      Y      Z
   1   6    -0.00  -0.01   0.06    -0.05  -0.16   0.17     0.00  -0.01   0.18
   2   6     0.08   0.01  -0.25    -0.02   0.10   0.01    -0.00  -0.17   0.11
   3   8    -0.01  -0.01  -0.01     0.00   0.00   0.00    -0.00  -0.00  -0.00
   4   1     0.00   0.11  -0.05     0.03   0.66  -0.37     0.01   0.25  -0.12
   5   1    -0.03  -0.02  -0.00     0.04   0.02   0.05    -0.15  -0.13  -0.06
   6   1     0.05  -0.04  -0.18     0.08  -0.09  -0.28     0.13  -0.10  -0.44
   7   1    -0.27   0.17   0.86     0.08  -0.03  -0.25    -0.01  -0.02   0.04
   8   1     0.01  -0.18   0.07    -0.02  -0.37   0.24     0.03   0.65  -0.40
   9   1    -0.00   0.00   0.00     0.00   0.01  -0.00     0.00  -0.01   0.01
                     19                     20                     21
                        a                      a                      a 
 Frequencies --  2977.7130              2978.7371              3425.2065
 Red. masses --     1.3454                 1.8476                 1.8727
 Frc consts  --     0.0000                 0.0000                 0.0000
 IR Inten    --    30.5212                50.6739                 6.4623
 Raman Activ --     0.0000                 0.0000                 0.0000
 Depolar     --     0.0000                 0.0000                 0.0000
 Atom AN      X      Y      Z        X      Y      Z        X      Y      Z
   1   6     0.10  -0.10  -0.08    -0.15  -0.19  -0.11     0.00  -0.00   0.00
   2   6     0.01  -0.05  -0.00     0.00  -0.07   0.01     0.00   0.01  -0.00
   3   8    -0.00  -0.00  -0.00    -0.00   0.00  -0.00     0.01   0.20  -0.13
   4   1     0.04   0.42  -0.27    -0.01   0.14  -0.11     0.00   0.00  -0.00
   5   1    -0.21  -0.20  -0.15     0.61   0.52   0.37    -0.00  -0.00  -0.00
   6   1    -0.20   0.14   0.71    -0.07   0.01   0.15    -0.00   0.00  -0.00
   7   1    -0.03   0.01   0.12    -0.03   0.01   0.10     0.00  -0.00  -0.00
   8   1     0.01   0.17  -0.11     0.01   0.23  -0.14     0.00  -0.01   0.01
   9   1     0.00  -0.00   0.00     0.00  -0.01   0.00    -0.04  -0.83   0.50
